<?xml version="1.0" encoding="UTF-8"?>

<!-- generated on 11/11/20 16:34:38 by Eclipse SUMO GUI Version 1.7.0
<configuration xmlns:xsi="http://www.w3.org/2001/XMLSchema-instance" xsi:noNamespaceSchemaLocation="http://sumo.dlr.de/xsd/sumoConfiguration.xsd">

    <input>
        <net-file value="G:\IISc\simu1\test.net.xml"/>
        <route-files value="G:\IISc\simu1\vehicle.route.xml"/>
        <additional-files value="G:\IISc\simu1\map.poly.xml"/>
    </input>

    <output>
        <fcd-output value="G:\IISc\simu1\fcd.xml"/>
        <fcd-output.geo value="true"/>
    </output>

    <time>
        <begin value="0"/>
        <end value="60"/>
    </time>

</configuration>
-->

<fcd-export xmlns:xsi="http://www.w3.org/2001/XMLSchema-instance" xsi:noNamespaceSchemaLocation="http://sumo.dlr.de/xsd/fcd_file.xsd">
    <timestep time="0.00">
        <vehicle id="0" x="77.562643" y="13.024442" angle="157.377498" type="car1" speed="0.000000" pos="5.100000" lane="-465135507#5_0" slope="0.000000"/>
    </timestep>
    <timestep time="1.00">
        <vehicle id="0" x="77.562645" y="13.024437" angle="157.377498" type="car1" speed="0.538662" pos="5.638662" lane="-465135507#5_0" slope="0.000000"/>
    </timestep>
    <timestep time="2.00">
        <vehicle id="0" x="77.562649" y="13.024428" angle="157.377498" type="car1" speed="1.125182" pos="6.763844" lane="-465135507#5_0" slope="0.000000"/>
        <vehicle id="2" x="77.562071" y="13.024638" angle="167.054351" type="car3" speed="0.000000" pos="5.100000" lane="38978208#1_0" slope="0.000000"/>
    </timestep>
    <timestep time="3.00">
        <vehicle id="0" x="77.562655" y="13.024413" angle="157.377498" type="car1" speed="1.768173" pos="8.532017" lane="-465135507#5_0" slope="0.000000"/>
        <vehicle id="2" x="77.562073" y="13.024631" angle="167.054351" type="car3" speed="0.784598" pos="5.884598" lane="38978208#1_0" slope="0.000000"/>
        <vehicle id="3" x="77.562416" y="13.025058" angle="158.776468" type="car4" speed="0.000000" pos="5.100000" lane="-465135507#6_0" slope="0.000000"/>
    </timestep>
    <timestep time="4.00">
        <vehicle id="0" x="77.562663" y="13.024394" angle="157.377498" type="car1" speed="2.255311" pos="10.787327" lane="-465135507#5_0" slope="0.000000"/>
        <vehicle id="2" x="77.562075" y="13.024618" angle="167.054351" type="car3" speed="1.464256" pos="7.348854" lane="38978208#1_0" slope="0.000000"/>
        <vehicle id="3" x="77.562419" y="13.025052" angle="158.776468" type="car4" speed="0.720011" pos="5.820011" lane="-465135507#6_0" slope="0.000000"/>
    </timestep>
    <timestep time="5.00">
        <vehicle id="0" x="77.562673" y="13.024371" angle="157.377498" type="car1" speed="2.745391" pos="13.532719" lane="-465135507#5_0" slope="0.000000"/>
        <vehicle id="1" x="77.562643" y="13.024442" angle="157.377498" type="car2" speed="0.000000" pos="5.100000" lane="-465135507#5_0" slope="0.000000"/>
        <vehicle id="2" x="77.562080" y="13.024599" angle="167.054351" type="car3" speed="2.207398" pos="9.556252" lane="38978208#1_0" slope="0.000000"/>
        <vehicle id="3" x="77.562423" y="13.025042" angle="158.776468" type="car4" speed="1.163546" pos="6.983556" lane="-465135507#6_0" slope="0.000000"/>
    </timestep>
    <timestep time="6.00">
        <vehicle id="0" x="77.562684" y="13.024343" angle="157.385184" type="car1" speed="3.387749" pos="16.920467" lane="-465135507#5_0" slope="0.000000"/>
        <vehicle id="1" x="77.562645" y="13.024437" angle="157.377498" type="car2" speed="0.535570" pos="5.635570" lane="-465135507#5_0" slope="0.000000"/>
        <vehicle id="2" x="77.562085" y="13.024573" angle="167.054351" type="car3" speed="2.870202" pos="12.426454" lane="38978208#1_0" slope="0.000000"/>
        <vehicle id="3" x="77.562429" y="13.025026" angle="158.776468" type="car4" speed="1.917885" pos="8.901442" lane="-465135507#6_0" slope="0.000000"/>
    </timestep>
    <timestep time="7.00">
        <vehicle id="0" x="77.562700" y="13.024310" angle="155.327905" type="car1" speed="4.029652" pos="1.190119" lane=":1316878116_6_0" slope="0.000000"/>
        <vehicle id="1" x="77.562649" y="13.024427" angle="157.377498" type="car2" speed="1.201363" pos="6.836934" lane="-465135507#5_0" slope="0.000000"/>
        <vehicle id="2" x="77.562094" y="13.024543" angle="165.462867" type="car3" speed="3.461185" pos="0.977639" lane=":463681481_8_0" slope="0.000000"/>
        <vehicle id="3" x="77.562437" y="13.025005" angle="158.776468" type="car4" speed="2.490461" pos="11.391903" lane="-465135507#6_0" slope="0.000000"/>
    </timestep>
    <timestep time="8.00">
        <vehicle id="0" x="77.562733" y="13.024285" angle="128.137261" type="car1" speed="4.681899" pos="5.872018" lane=":1316878116_6_0" slope="0.000000"/>
        <vehicle id="1" x="77.562656" y="13.024412" angle="157.377498" type="car2" speed="1.806656" pos="8.643590" lane="-465135507#5_0" slope="0.000000"/>
        <vehicle id="2" x="77.562115" y="13.024512" angle="147.656004" type="car3" speed="4.209431" pos="5.187070" lane=":463681481_8_0" slope="0.000000"/>
        <vehicle id="3" x="77.562447" y="13.024978" angle="158.776468" type="car4" speed="3.198777" pos="14.590680" lane="-465135507#6_0" slope="0.000000"/>
        <vehicle id="5" x="77.562081" y="13.024594" angle="167.054351" type="bus2" speed="0.000000" pos="10.100000" lane="38978208#1_0" slope="0.000000"/>
    </timestep>
    <timestep time="9.00">
        <vehicle id="0" x="77.562781" y="13.024284" angle="89.652364" type="car1" speed="5.243787" pos="1.135806" lane="116908421#0_0" slope="0.000000"/>
        <vehicle id="1" x="77.562664" y="13.024392" angle="157.377498" type="car2" speed="2.398599" pos="11.042189" lane="-465135507#5_0" slope="0.000000"/>
        <vehicle id="2" x="77.562158" y="13.024504" angle="101.216347" type="car3" speed="4.858720" pos="10.045790" lane=":463681481_8_0" slope="0.000000"/>
        <vehicle id="3" x="77.562460" y="13.024946" angle="158.776468" type="car4" speed="3.844432" pos="18.435113" lane="-465135507#6_0" slope="0.000000"/>
        <vehicle id="5" x="77.562082" y="13.024589" angle="167.054351" type="bus2" speed="0.556433" pos="10.656433" lane="38978208#1_0" slope="0.000000"/>
    </timestep>
    <timestep time="10.00">
        <vehicle id="0" x="77.562835" y="13.024292" angle="81.511056" type="car1" speed="5.935489" pos="7.071295" lane="116908421#0_0" slope="0.000000"/>
        <vehicle id="1" x="77.562674" y="13.024367" angle="157.377498" type="car2" speed="3.008496" pos="14.050685" lane="-465135507#5_0" slope="0.000000"/>
        <vehicle id="2" x="77.562209" y="13.024509" angle="83.568780" type="car3" speed="5.619045" pos="5.514835" lane="-36732232#0_0" slope="0.000000"/>
        <vehicle id="3" x="77.562474" y="13.024909" angle="158.776468" type="car4" speed="4.286382" pos="22.721495" lane="-465135507#6_0" slope="0.000000"/>
        <vehicle id="5" x="77.562084" y="13.024579" angle="167.054351" type="bus2" speed="1.101821" pos="11.758253" lane="38978208#1_0" slope="0.000000"/>
    </timestep>
    <timestep time="11.00">
        <vehicle id="0" x="77.562896" y="13.024300" angle="81.490292" type="car1" speed="6.697283" pos="1.568578" lane=":445628098_13_0" slope="0.000000"/>
        <vehicle id="1" x="77.562686" y="13.024338" angle="157.407018" type="car2" speed="3.441026" pos="17.491710" lane="-465135507#5_0" slope="0.000000"/>
        <vehicle id="2" x="77.562267" y="13.024515" angle="83.568780" type="car3" speed="6.296489" pos="11.811323" lane="-36732232#0_0" slope="0.000000"/>
        <vehicle id="3" x="77.562489" y="13.024868" angle="158.776468" type="car4" speed="4.829260" pos="27.550755" lane="-465135507#6_0" slope="0.000000"/>
        <vehicle id="5" x="77.562087" y="13.024565" angle="167.054351" type="bus2" speed="1.566826" pos="13.325080" lane="38978208#1_0" slope="0.000000"/>
    </timestep>
    <timestep time="12.00">
        <vehicle id="0" x="77.562963" y="13.024309" angle="81.444920" type="car1" speed="7.356712" pos="8.925291" lane=":445628098_13_0" slope="0.000000"/>
        <vehicle id="1" x="77.562702" y="13.024307" angle="154.613847" type="car2" speed="3.849877" pos="1.581588" lane=":1316878116_6_0" slope="0.000000"/>
        <vehicle id="2" x="77.562330" y="13.024521" angle="83.568780" type="car3" speed="6.916069" pos="18.727392" lane="-36732232#0_0" slope="0.000000"/>
        <vehicle id="3" x="77.562507" y="13.024824" angle="158.776468" type="car4" speed="5.283121" pos="32.833876" lane="-465135507#6_0" slope="0.000000"/>
        <vehicle id="4" x="77.562661" y="13.024400" angle="157.377498" type="bus1" speed="0.000000" pos="10.100000" lane="-465135507#5_0" slope="0.000000"/>
        <vehicle id="5" x="77.562092" y="13.024546" angle="166.532306" type="bus2" speed="2.226996" pos="0.642076" lane=":463681481_8_0" slope="0.000000"/>
    </timestep>
    <timestep time="13.00">
        <vehicle id="0" x="77.563034" y="13.024319" angle="81.489878" type="car1" speed="7.789698" pos="6.234989" lane="116908421#1_0" slope="0.000000"/>
        <vehicle id="1" x="77.562736" y="13.024284" angle="125.196674" type="car2" speed="4.621457" pos="6.203045" lane=":1316878116_6_0" slope="0.000000"/>
        <vehicle id="2" x="77.562401" y="13.024528" angle="83.568780" type="car3" speed="7.712730" pos="26.440122" lane="-36732232#0_0" slope="0.000000"/>
        <vehicle id="3" x="77.562525" y="13.024775" angle="158.776468" type="car4" speed="5.740301" pos="38.574177" lane="-465135507#6_0" slope="0.000000"/>
        <vehicle id="4" x="77.562663" y="13.024395" angle="157.377498" type="bus1" speed="0.575932" pos="10.675932" lane="-465135507#5_0" slope="0.000000"/>
        <vehicle id="5" x="77.562103" y="13.024524" angle="162.882180" type="bus2" speed="2.758177" pos="3.400253" lane=":463681481_8_0" slope="0.000000"/>
    </timestep>
    <timestep time="14.00">
        <vehicle id="0" x="77.563109" y="13.024329" angle="81.489878" type="car1" speed="8.233294" pos="14.468283" lane="116908421#1_0" slope="0.000000"/>
        <vehicle id="1" x="77.562785" y="13.024285" angle="87.495800" type="car2" speed="5.381688" pos="1.604733" lane="116908421#0_0" slope="0.000000"/>
        <vehicle id="2" x="77.562477" y="13.024536" angle="83.568780" type="car3" speed="8.314053" pos="34.754175" lane="-36732232#0_0" slope="0.000000"/>
        <vehicle id="3" x="77.562544" y="13.024722" angle="160.856652" type="car4" speed="6.218695" pos="44.792872" lane="-465135507#6_0" slope="0.000000"/>
        <vehicle id="4" x="77.562666" y="13.024387" angle="157.377498" type="bus1" speed="0.984318" pos="11.660250" lane="-465135507#5_0" slope="0.000000"/>
        <vehicle id="5" x="77.562128" y="13.024507" angle="149.056027" type="bus2" speed="3.329268" pos="6.729521" lane=":463681481_8_0" slope="0.000000"/>
    </timestep>
    <timestep time="15.00">
        <vehicle id="0" x="77.563189" y="13.024340" angle="81.489878" type="car1" speed="8.748297" pos="23.216580" lane="116908421#1_0" slope="0.000000"/>
        <vehicle id="1" x="77.562838" y="13.024292" angle="81.511056" type="car2" speed="5.792625" pos="7.397358" lane="116908421#0_0" slope="0.000000"/>
        <vehicle id="2" x="77.562532" y="13.024544" angle="80.624121" type="car3" speed="5.959443" pos="1.783617" lane=":426941473_6_0" slope="0.000000"/>
        <vehicle id="3" x="77.562563" y="13.024662" angle="161.928816" type="car4" speed="6.958475" pos="51.751347" lane="-465135507#6_0" slope="0.000000"/>
        <vehicle id="4" x="77.562672" y="13.024374" angle="157.377498" type="bus1" speed="1.568547" pos="13.228797" lane="-465135507#5_0" slope="0.000000"/>
        <vehicle id="5" x="77.562165" y="13.024504" angle="119.185243" type="bus2" speed="4.079798" pos="0.659319" lane="-36732232#0_0" slope="0.000000"/>
    </timestep>
    <timestep time="16.00">
        <vehicle id="0" x="77.563276" y="13.024352" angle="81.489878" type="car1" speed="9.530105" pos="32.746685" lane="116908421#1_0" slope="0.000000"/>
        <vehicle id="1" x="77.562895" y="13.024300" angle="81.492155" type="car2" speed="6.230372" pos="1.427730" lane=":445628098_13_0" slope="0.000000"/>
        <vehicle id="2" x="77.562556" y="13.024585" angle="21.437590" type="car3" speed="5.953843" pos="7.737460" lane=":426941473_6_0" slope="0.000000"/>
        <vehicle id="3" x="77.562583" y="13.024596" angle="163.275082" type="car4" speed="7.621606" pos="1.012953" lane=":426941473_4_0" slope="0.000000"/>
        <vehicle id="4" x="77.562679" y="13.024355" angle="157.377498" type="bus1" speed="2.223309" pos="15.452107" lane="-465135507#5_0" slope="0.000000"/>
        <vehicle id="5" x="77.562209" y="13.024509" angle="90.816027" type="bus2" speed="4.787727" pos="5.447046" lane="-36732232#0_0" slope="0.000000"/>
    </timestep>
    <timestep time="17.00">
        <vehicle id="0" x="77.563368" y="13.024365" angle="81.489878" type="car1" speed="10.133527" pos="42.880212" lane="116908421#1_0" slope="0.000000"/>
        <vehicle id="1" x="77.562956" y="13.024308" angle="81.444920" type="car2" speed="6.702954" pos="8.130683" lane=":445628098_13_0" slope="0.000000"/>
        <vehicle id="2" x="77.562541" y="13.024636" angle="342.331816" type="car3" speed="5.893296" pos="4.570757" lane="465135507#6_0" slope="0.000000"/>
        <vehicle id="3" x="77.562586" y="13.024559" angle="174.878335" type="car4" speed="4.234075" pos="5.247028" lane=":426941473_4_0" slope="0.000000"/>
        <vehicle id="4" x="77.562689" y="13.024332" angle="157.405666" type="bus1" speed="2.741204" pos="18.193310" lane="-465135507#5_0" slope="0.000000"/>
        <vehicle id="5" x="77.562257" y="13.024514" angle="83.568780" type="bus2" speed="5.257558" pos="10.704604" lane="-36732232#0_0" slope="0.000000"/>
    </timestep>
    <timestep time="18.00">
        <vehicle id="0" x="77.563466" y="13.024378" angle="81.489878" type="car1" speed="10.697545" pos="53.577757" lane="116908421#1_0" slope="0.000000"/>
        <vehicle id="1" x="77.563021" y="13.024317" angle="81.488562" type="car2" speed="7.203094" pos="4.853778" lane="116908421#1_0" slope="0.000000"/>
        <vehicle id="2" x="77.562523" y="13.024692" angle="341.870380" type="car3" speed="6.475359" pos="11.046115" lane="465135507#6_0" slope="0.000000"/>
        <vehicle id="3" x="77.562561" y="13.024523" angle="213.993585" type="car4" speed="4.965295" pos="4.502324" lane=":426941473_10_0" slope="0.000000"/>
        <vehicle id="4" x="77.562703" y="13.024304" angle="155.673125" type="bus1" speed="3.504298" pos="1.937608" lane=":1316878116_6_0" slope="0.000000"/>
        <vehicle id="5" x="77.562310" y="13.024519" angle="83.568780" type="bus2" speed="5.799471" pos="16.504075" lane="-36732232#0_0" slope="0.000000"/>
    </timestep>
    <timestep time="19.00">
        <vehicle id="0" x="77.563571" y="13.024392" angle="81.489878" type="car1" speed="11.480100" pos="65.057858" lane="116908421#1_0" slope="0.000000"/>
        <vehicle id="1" x="77.563092" y="13.024327" angle="81.489878" type="car2" speed="7.705791" pos="12.559569" lane="116908421#1_0" slope="0.000000"/>
        <vehicle id="2" x="77.562502" y="13.024753" angle="341.049629" type="car3" speed="7.195389" pos="18.241504" lane="465135507#6_0" slope="0.000000"/>
        <vehicle id="3" x="77.562512" y="13.024510" angle="256.455905" type="car4" speed="5.543713" pos="0.716037" lane="36732232#0_0" slope="0.000000"/>
        <vehicle id="4" x="77.562735" y="13.024284" angle="140.974245" type="bus1" speed="4.182981" pos="6.120589" lane=":1316878116_6_0" slope="0.000000"/>
        <vehicle id="5" x="77.562369" y="13.024525" angle="83.568780" type="bus2" speed="6.441585" pos="22.945660" lane="-36732232#0_0" slope="0.000000"/>
    </timestep>
    <timestep time="20.00">
        <vehicle id="0" x="77.563682" y="13.024407" angle="81.476994" type="car1" speed="12.181100" pos="1.748958" lane=":4008637884_6_0" slope="0.000000"/>
        <vehicle id="1" x="77.563167" y="13.024337" angle="81.489878" type="car2" speed="8.287681" pos="20.847250" lane="116908421#1_0" slope="0.000000"/>
        <vehicle id="2" x="77.562477" y="13.024818" angle="338.777961" type="car3" speed="7.603256" pos="25.844761" lane="465135507#6_0" slope="0.000000"/>
        <vehicle id="3" x="77.562457" y="13.024505" angle="263.568780" type="car4" speed="6.045665" pos="6.761702" lane="36732232#0_0" slope="0.000000"/>
        <vehicle id="4" x="77.562780" y="13.024284" angle="108.157389" type="bus1" speed="4.901069" pos="1.041658" lane="116908421#0_0" slope="0.000000"/>
        <vehicle id="5" x="77.562435" y="13.024532" angle="83.568780" type="bus2" speed="7.238336" pos="30.183996" lane="-36732232#0_0" slope="0.000000"/>
    </timestep>
    <timestep time="21.00">
        <vehicle id="0" x="77.563797" y="13.024423" angle="81.506938" type="car1" speed="12.601189" pos="3.850147" lane="116908421#2_0" slope="0.000000"/>
        <vehicle id="1" x="77.563250" y="13.024348" angle="81.489878" type="car2" speed="9.085267" pos="29.932517" lane="116908421#1_0" slope="0.000000"/>
        <vehicle id="2" x="77.562451" y="13.024886" angle="338.777961" type="car3" speed="8.031251" pos="33.876012" lane="465135507#6_0" slope="0.000000"/>
        <vehicle id="3" x="77.562396" y="13.024499" angle="263.568780" type="car4" speed="6.576464" pos="13.338165" lane="36732232#0_0" slope="0.000000"/>
        <vehicle id="4" x="77.562829" y="13.024291" angle="84.930692" type="bus1" speed="5.371905" pos="6.413563" lane="116908421#0_0" slope="0.000000"/>
        <vehicle id="5" x="77.562492" y="13.024537" angle="83.568780" type="bus2" speed="6.192204" pos="36.376200" lane="-36732232#0_0" slope="0.000000"/>
    </timestep>
    <timestep time="22.00">
        <vehicle id="0" x="77.563918" y="13.024440" angle="81.523028" type="car1" speed="13.225689" pos="17.075836" lane="116908421#2_0" slope="0.000000"/>
        <vehicle id="1" x="77.563339" y="13.024360" angle="81.489878" type="car2" speed="9.698801" pos="39.631318" lane="116908421#1_0" slope="0.000000"/>
        <vehicle id="2" x="77.562423" y="13.024960" angle="338.777961" type="car3" speed="8.797085" pos="42.673097" lane="465135507#6_0" slope="0.000000"/>
        <vehicle id="3" x="77.562330" y="13.024492" angle="263.568780" type="car4" speed="7.195619" pos="20.533784" lane="36732232#0_0" slope="0.000000"/>
        <vehicle id="4" x="77.562884" y="13.024298" angle="81.509250" type="bus1" speed="6.059292" pos="0.272854" lane=":445628098_13_0" slope="0.000000"/>
        <vehicle id="5" x="77.562536" y="13.024545" angle="81.720562" type="bus2" speed="4.794418" pos="2.240618" lane=":426941473_6_0" slope="0.000000"/>
    </timestep>
    <timestep time="23.00">
        <vehicle id="0" x="77.564043" y="13.024459" angle="77.908147" type="car1" speed="13.827051" pos="30.902887" lane="116908421#2_0" slope="0.000000"/>
        <vehicle id="1" x="77.563433" y="13.024373" angle="81.489878" type="car2" speed="10.272291" pos="49.903609" lane="116908421#1_0" slope="0.000000"/>
        <vehicle id="2" x="77.562392" y="13.025041" angle="338.777961" type="car3" speed="9.578831" pos="52.251929" lane="465135507#6_0" slope="0.000000"/>
        <vehicle id="3" x="77.562258" y="13.024485" angle="263.568780" type="car4" speed="7.889813" pos="28.423597" lane="36732232#0_0" slope="0.000000"/>
        <vehicle id="4" x="77.562945" y="13.024307" angle="81.465203" type="bus1" speed="6.657863" pos="6.930718" lane=":445628098_13_0" slope="0.000000"/>
        <vehicle id="5" x="77.562557" y="13.024579" angle="56.751777" type="bus2" speed="4.885478" pos="7.126096" lane=":426941473_6_0" slope="0.000000"/>
    </timestep>
    <timestep time="24.00">
        <vehicle id="0" x="77.564172" y="13.024499" angle="72.196698" type="car1" speed="14.614405" pos="45.517293" lane="116908421#2_0" slope="0.000000"/>
        <vehicle id="1" x="77.563533" y="13.024387" angle="81.489878" type="car2" speed="11.048188" pos="60.951797" lane="116908421#1_0" slope="0.000000"/>
        <vehicle id="2" x="77.562366" y="13.025102" angle="335.915951" type="car3" speed="7.372224" pos="1.424153" lane=":463681242_0_0" slope="0.000000"/>
        <vehicle id="3" x="77.562193" y="13.024478" angle="263.568780" type="car4" speed="7.102468" pos="35.526065" lane="36732232#0_0" slope="0.000000"/>
        <vehicle id="4" x="77.563011" y="13.024316" angle="81.461819" type="bus1" speed="7.310011" pos="3.760728" lane="116908421#1_0" slope="0.000000"/>
        <vehicle id="5" x="77.562545" y="13.024623" angle="6.595486" type="bus2" speed="5.020620" pos="3.086715" lane="465135507#6_0" slope="0.000000"/>
    </timestep>
    <timestep time="25.00">
        <vehicle id="1" x="77.563640" y="13.024402" angle="81.489878" type="car2" speed="11.719402" pos="72.671199" lane="116908421#1_0" slope="0.000000"/>
        <vehicle id="2" x="77.562308" y="13.025127" angle="282.411794" type="car3" speed="7.302143" pos="8.726296" lane=":463681242_0_0" slope="0.000000"/>
        <vehicle id="3" x="77.562121" y="13.024470" angle="262.819937" type="car4" speed="7.883989" pos="4.480054" lane=":463681481_5_0" slope="0.000000"/>
        <vehicle id="4" x="77.563083" y="13.024326" angle="81.489878" type="bus1" speed="7.836568" pos="11.597296" lane="116908421#1_0" slope="0.000000"/>
        <vehicle id="5" x="77.562529" y="13.024670" angle="342.779007" type="bus2" speed="5.512295" pos="8.599010" lane="465135507#6_0" slope="0.000000"/>
    </timestep>
    <timestep time="26.00">
        <vehicle id="1" x="77.563753" y="13.024417" angle="81.453040" type="car2" speed="12.314216" pos="9.495415" lane=":4008637884_6_0" slope="0.000000"/>
        <vehicle id="2" x="77.562241" y="13.025118" angle="260.105856" type="car3" speed="7.311807" pos="5.698103" lane="-38978201#5_0" slope="0.000000"/>
        <vehicle id="3" x="77.562045" y="13.024461" angle="262.733046" type="car4" speed="8.325174" pos="12.805228" lane=":463681481_5_0" slope="0.000000"/>
        <vehicle id="4" x="77.563161" y="13.024336" angle="81.489878" type="bus1" speed="8.513742" pos="20.111038" lane="116908421#1_0" slope="0.000000"/>
        <vehicle id="5" x="77.562513" y="13.024722" angle="341.965628" type="bus2" speed="5.953654" pos="14.552664" lane="465135507#6_0" slope="0.000000"/>
    </timestep>
    <timestep time="27.00">
        <vehicle id="1" x="77.563869" y="13.024433" angle="81.523028" type="car2" speed="12.794361" pos="11.789776" lane="116908421#2_0" slope="0.000000"/>
        <vehicle id="2" x="77.562169" y="13.025106" angle="260.105856" type="car3" speed="7.921476" pos="13.619578" lane="-38978201#5_0" slope="0.000000"/>
        <vehicle id="3" x="77.561961" y="13.024451" angle="261.877167" type="car4" speed="9.125018" pos="6.910246" lane="36732232#1_0" slope="0.000000"/>
        <vehicle id="4" x="77.563243" y="13.024347" angle="81.489878" type="bus1" speed="9.060352" pos="29.171390" lane="116908421#1_0" slope="0.000000"/>
        <vehicle id="5" x="77.562493" y="13.024778" angle="340.628267" type="bus2" speed="6.628883" pos="21.181547" lane="465135507#6_0" slope="0.000000"/>
    </timestep>
    <timestep time="28.00">
        <vehicle id="1" x="77.563985" y="13.024449" angle="81.523028" type="car2" speed="12.670896" pos="24.460672" lane="116908421#2_0" slope="0.000000"/>
        <vehicle id="2" x="77.562091" y="13.025094" angle="260.105856" type="car3" speed="8.600507" pos="22.220085" lane="-38978201#5_0" slope="0.000000"/>
        <vehicle id="3" x="77.561871" y="13.024439" angle="261.877167" type="car4" speed="9.923897" pos="16.834142" lane="36732232#1_0" slope="0.000000"/>
        <vehicle id="4" x="77.563330" y="13.024359" angle="81.489878" type="bus1" speed="9.484736" pos="38.656126" lane="116908421#1_0" slope="0.000000"/>
        <vehicle id="5" x="77.562469" y="13.024841" angle="338.777961" type="bus2" speed="7.385626" pos="28.567173" lane="465135507#6_0" slope="0.000000"/>
    </timestep>
    <timestep time="29.00">
        <vehicle id="1" x="77.564093" y="13.024475" angle="72.196698" type="car2" speed="12.141761" pos="36.602433" lane="116908421#2_0" slope="0.000000"/>
        <vehicle id="2" x="77.562009" y="13.025080" angle="260.140830" type="car3" speed="9.010270" pos="1.780355" lane=":463681291_4_0" slope="0.000000"/>
        <vehicle id="3" x="77.561774" y="13.024428" angle="263.479065" type="car4" speed="10.599342" pos="5.133485" lane=":463681299_4_0" slope="0.000000"/>
        <vehicle id="4" x="77.563421" y="13.024372" angle="81.489878" type="bus1" speed="9.955013" pos="48.611139" lane="116908421#1_0" slope="0.000000"/>
        <vehicle id="5" x="77.562443" y="13.024907" angle="338.777961" type="bus2" speed="7.876172" pos="36.443345" lane="465135507#6_0" slope="0.000000"/>
    </timestep>
    <timestep time="30.00">
        <vehicle id="1" x="77.564161" y="13.024495" angle="72.196698" type="car2" speed="7.641761" pos="44.244194" lane="116908421#2_0" slope="0.000000"/>
        <vehicle id="2" x="77.561923" y="13.025067" angle="260.204072" type="car3" speed="9.440938" pos="11.221292" lane=":463681291_4_0" slope="0.000000"/>
        <vehicle id="3" x="77.561670" y="13.024418" angle="264.207887" type="car4" speed="11.290955" pos="2.074440" lane="36732232#2_0" slope="0.000000"/>
        <vehicle id="4" x="77.563516" y="13.024385" angle="81.489878" type="bus1" speed="10.399963" pos="59.011102" lane="116908421#1_0" slope="0.000000"/>
        <vehicle id="5" x="77.562416" y="13.024979" angle="338.777961" type="bus2" speed="8.472793" pos="44.916138" lane="465135507#6_0" slope="0.000000"/>
    </timestep>
    <timestep time="31.00">
        <vehicle id="1" x="77.564188" y="13.024499" angle="78.255457" type="car2" speed="3.141761" pos="0.925955" lane=":677312475_15_0" slope="0.000000"/>
        <vehicle id="2" x="77.561831" y="13.025052" angle="260.345146" type="car3" speed="10.070071" pos="6.891363" lane="-38978201#4_0" slope="0.000000"/>
        <vehicle id="3" x="77.561561" y="13.024410" angle="265.236358" type="car4" speed="11.924044" pos="13.998484" lane="36732232#2_0" slope="0.000000"/>
        <vehicle id="4" x="77.563616" y="13.024398" angle="81.489878" type="bus1" speed="11.041332" pos="70.052434" lane="116908421#1_0" slope="0.000000"/>
        <vehicle id="5" x="77.562386" y="13.025056" angle="338.777961" type="bus2" speed="9.110524" pos="54.026662" lane="465135507#6_0" slope="0.000000"/>
    </timestep>
    <timestep time="32.00">
        <vehicle id="1" x="77.564192" y="13.024477" angle="138.594930" type="car2" speed="3.233527" pos="1.819483" lane=":677312475_19_0" slope="0.000000"/>
        <vehicle id="2" x="77.561734" y="13.025037" angle="260.345146" type="car3" speed="10.746892" pos="17.638256" lane="-38978201#4_0" slope="0.000000"/>
        <vehicle id="3" x="77.561476" y="13.024404" angle="265.236358" type="car4" speed="9.233430" pos="23.231913" lane="36732232#2_0" slope="0.000000"/>
        <vehicle id="4" x="77.563722" y="13.024413" angle="81.467092" type="bus1" speed="11.623606" pos="6.186040" lane=":4008637884_6_0" slope="0.000000"/>
        <vehicle id="5" x="77.562363" y="13.025106" angle="336.844771" type="bus2" speed="6.099119" pos="1.925780" lane=":463681242_0_0" slope="0.000000"/>
    </timestep>
    <timestep time="33.00">
        <vehicle id="1" x="77.564166" y="13.024467" angle="230.168654" type="car2" speed="3.101638" pos="2.581121" lane="-116908421#2_0" slope="0.000000"/>
        <vehicle id="2" x="77.561631" y="13.025021" angle="260.345146" type="car3" speed="11.326042" pos="28.964298" lane="-38978201#4_0" slope="0.000000"/>
        <vehicle id="3" x="77.561431" y="13.024375" angle="229.472254" type="car4" speed="6.339137" pos="6.081050" lane=":463681308_3_0" slope="0.000000"/>
        <vehicle id="4" x="77.563834" y="13.024428" angle="81.508607" type="bus1" speed="12.252778" pos="7.938818" lane="116908421#2_0" slope="0.000000"/>
        <vehicle id="5" x="77.562315" y="13.025127" angle="310.019061" type="bus2" speed="5.987549" pos="7.913330" lane=":463681242_0_0" slope="0.000000"/>
    </timestep>
    <timestep time="34.00">
        <vehicle id="1" x="77.564133" y="13.024456" angle="252.238128" type="car2" speed="3.783355" pos="6.364476" lane="-116908421#2_0" slope="0.000000"/>
        <vehicle id="2" x="77.561521" y="13.025004" angle="260.345146" type="car3" speed="12.023489" pos="40.987787" lane="-38978201#4_0" slope="0.000000"/>
        <vehicle id="3" x="77.561439" y="13.024316" angle="168.803242" type="car4" speed="6.654243" pos="3.685293" lane="38978210_0" slope="0.000000"/>
        <vehicle id="4" x="77.563951" y="13.024444" angle="81.523028" type="bus1" speed="12.791170" pos="20.729988" lane="116908421#2_0" slope="0.000000"/>
        <vehicle id="5" x="77.562262" y="13.025121" angle="272.130117" type="bus2" speed="5.802823" pos="3.376152" lane="-38978201#5_0" slope="0.000000"/>
    </timestep>
    <timestep time="35.00">
        <vehicle id="1" x="77.564093" y="13.024444" angle="252.238128" type="car2" speed="4.557024" pos="10.921500" lane="-116908421#2_0" slope="0.000000"/>
        <vehicle id="2" x="77.561433" y="13.024990" angle="260.345146" type="car3" speed="9.664241" pos="50.652028" lane="-38978201#4_0" slope="0.000000"/>
        <vehicle id="3" x="77.561454" y="13.024252" angle="166.671031" type="car4" speed="7.299637" pos="10.984930" lane="38978210_0" slope="0.000000"/>
        <vehicle id="4" x="77.564067" y="13.024467" angle="77.145132" type="bus1" speed="12.928520" pos="33.658508" lane="116908421#2_0" slope="0.000000"/>
        <vehicle id="5" x="77.562204" y="13.025112" angle="260.263629" type="bus2" speed="6.359684" pos="9.735837" lane="-38978201#5_0" slope="0.000000"/>
    </timestep>
    <timestep time="36.00">